    1C
    1UBalken                                                            
    1UUSER                                                              
    1UDATE              28.april.2018                                   
    1UTIME              16:23:15                                        
    1UHOST                                                              
    1UPGM               CalculiX                                        
    1UVERSION           Version 2.14                             
    1UCOMPILETIME       Sa 28. Apr 16:03:57 CEST 2018                    
    1UDIR                                                               
    1UDBN                                                               
    1UMAT    1STEEL                                                     
    2C                            11                                     1
 -1         1 0.00000E+00 0.00000E+00 0.00000E+00
 -1         2 0.00000E+00 0.00000E+00 1.00000E+02
 -1         3 0.00000E+00 0.00000E+00 2.00000E+02
 -1         4 0.00000E+00 0.00000E+00 3.00000E+02
 -1         5 0.00000E+00 0.00000E+00 4.00000E+02
 -1         6 0.00000E+00 0.00000E+00 5.00000E+02
 -1         7 0.00000E+00 0.00000E+00 6.00000E+02
 -1         8 0.00000E+00 0.00000E+00 7.00000E+02
 -1         9 0.00000E+00 0.00000E+00 8.00000E+02
 -1        10 0.00000E+00 0.00000E+00 9.00000E+02
 -1        11 0.00000E+00 0.00000E+00 1.00000E+03
 -3
    3C                             5                                     1
 -1         1   12    0    1
 -2         1         3         2
 -1         2   12    0    1
 -2         3         5         4
 -1         3   12    0    1
 -2         5         7         6
 -1         4   12    0    1
 -2         7         9         8
 -1         5   12    0    1
 -2         9        11        10
 -3
    1PSTEP                         1           1           1          
  100CL  101 1.000000000          11                     0    1           1
 -4  STRESS      6    1
 -5  SXX         1    4    1    1
 -5  SYY         1    4    2    2
 -5  SZZ         1    4    3    3
 -5  SXY         1    4    1    2
 -5  SYZ         1    4    2    3
 -5  SZX         1    4    3    1
 -1         1-8.00196E-09-9.99301E+01-2.23069E-07 1.56952E+03 9.33373E+04-3.21972E-06
 -1         2-7.90566E-09-9.96145E+01-2.02329E-07 1.59707E+03 8.66746E+04-2.92036E-06
 -1         3-7.80936E-09-9.92990E+01-1.81588E-07 1.62462E+03 8.00118E+04-2.62100E-06
 -1         4-7.43554E-09-9.86791E+01-1.51746E-07 1.66060E+03 7.00083E+04-2.19026E-06
 -1         5-7.06171E-09-9.80592E+01-1.21903E-07 1.69659E+03 6.00048E+04-1.75952E-06
 -1         6-6.75986E-09-9.82020E+01-9.50194E-08 1.68695E+03 5.00004E+04-1.37149E-06
 -1         7-6.45800E-09-9.83447E+01-6.81358E-08 1.67732E+03 3.99960E+04-9.83455E-07
 -1         8-5.41560E-09-9.84586E+01-4.50965E-08 1.68266E+03 2.99995E+04-6.50913E-07
 -1         9-4.37320E-09-9.85724E+01-2.20573E-08 1.68801E+03 2.00030E+04-3.18370E-07
 -1        10-3.12769E-09-9.86552E+01-1.38084E-08 1.68769E+03 1.33367E+04-1.99307E-07
 -1        11-1.88219E-09-9.87380E+01-5.55943E-09 1.68737E+03 6.67047E+03-8.02432E-08
 -3
 9999
